# vtk DataFile Version 3.0
#This file was generated by the deal.II library on 2025/7/22 at 12:53:13
ASCII
DATASET UNSTRUCTURED_GRID

POINTS 96 double
0 0 0
1 0 0
0 1.5 0
1 1.5 0
1 0 0
2 0 0
1 1.5 0
2 1.5 0
2 0 0
3 0 0
2 1.5 0
3 1.5 0
3 0 0
4 0 0
3 1.5 0
4 1.5 0
4 0 0
5 0 0
4 1.5 0
5 1.5 0
5 0 0
6 0 0
5 1.5 0
6 1.5 0
6 0 0
7 0 0
6 1.5 0
7 1.5 0
7 0 0
8 0 0
7 1.5 0
8 1.5 0
8 0 0
9 0 0
8 1.5 0
9 1.5 0
9 0 0
10 0 0
9 1.5 0
10 1.5 0
10 0 0
11 0 0
10 1.5 0
11 1.5 0
11 0 0
12 0 0
11 1.5 0
12 1.5 0
0 1.5 0
1 1.5 0
0 3 0
1 3 0
1 1.5 0
2 1.5 0
1 3 0
2 3 0
2 1.5 0
3 1.5 0
2 3 0
3 3 0
3 1.5 0
4 1.5 0
3 3 0
4 3 0
4 1.5 0
5 1.5 0
4 3 0
5 3 0
5 1.5 0
6 1.5 0
5 3 0
6 3 0
6 1.5 0
7 1.5 0
6 3 0
7 3 0
7 1.5 0
8 1.5 0
7 3 0
8 3 0
8 1.5 0
9 1.5 0
8 3 0
9 3 0
9 1.5 0
10 1.5 0
9 3 0
10 3 0
10 1.5 0
11 1.5 0
10 3 0
11 3 0
11 1.5 0
12 1.5 0
11 3 0
12 3 0

CELLS 24 120
4	0	1	3	2
4	4	5	7	6
4	8	9	11	10
4	12	13	15	14
4	16	17	19	18
4	20	21	23	22
4	24	25	27	26
4	28	29	31	30
4	32	33	35	34
4	36	37	39	38
4	40	41	43	42
4	44	45	47	46
4	48	49	51	50
4	52	53	55	54
4	56	57	59	58
4	60	61	63	62
4	64	65	67	66
4	68	69	71	70
4	72	73	75	74
4	76	77	79	78
4	80	81	83	82
4	84	85	87	86
4	88	89	91	90
4	92	93	95	94

CELL_TYPES 24
 9 9 9 9 9 9 9 9 9 9 9 9 9 9 9 9 9 9 9 9 9 9 9 9
POINT_DATA 96
VECTORS x_displacement__y_displacement double
-0.000676561 0.00374715 0
-0.000671773 0.0032857 0
4.12044e-15 0.00374645 0
5.22515e-14 0.00328401 0
-0.000671773 0.0032857 0
-0.000657645 0.00283099 0
5.22515e-14 0.00328401 0
5.41685e-16 0.00282744 0
-0.000657645 0.00283099 0
-0.000634084 0.00238879 0
5.41685e-16 0.00282744 0
-5.46571e-14 0.00238349 0
-0.000634084 0.00238879 0
-0.0006011 0.00196544 0
-5.46571e-14 0.00238349 0
-3.31432e-14 0.00195838 0
-0.0006011 0.00196544 0
-0.000558692 0.00156723 0
-3.31432e-14 0.00195838 0
-8.30559e-14 0.0015584 0
-0.000558692 0.00156723 0
-0.000506859 0.00120043 0
-8.30559e-14 0.0015584 0
2.05665e-14 0.00118983 0
-0.000506859 0.00120043 0
-0.000445603 0.000871327 0
2.05665e-14 0.00118983 0
6.83752e-14 0.000858958 0
-0.000445603 0.000871327 0
-0.000374922 0.0005862 0
6.83752e-14 0.000858958 0
2.20089e-14 0.000572067 0
-0.000374922 0.0005862 0
-0.000294815 0.000351354 0
2.20089e-14 0.000572067 0
3.16726e-14 0.000335423 0
-0.000294815 0.000351354 0
-0.000205313 0.000172886 0
3.16726e-14 0.000335423 0
-1.21629e-14 0.000155471 0
-0.000205313 0.000172886 0
-0.000106112 5.87527e-05 0
-1.21629e-14 0.000155471 0
-5.37951e-14 3.69884e-05 0
-0.000106112 5.87527e-05 0
0 0 0
-5.37951e-14 3.69884e-05 0
0 0 0
4.12044e-15 0.00374645 0
5.22515e-14 0.00328401 0
0.000676561 0.00374715 0
0.000671773 0.0032857 0
5.22515e-14 0.00328401 0
5.41685e-16 0.00282744 0
0.000671773 0.0032857 0
0.000657645 0.00283099 0
5.41685e-16 0.00282744 0
-5.46571e-14 0.00238349 0
0.000657645 0.00283099 0
0.000634084 0.00238879 0
-5.46571e-14 0.00238349 0
-3.31432e-14 0.00195838 0
0.000634084 0.00238879 0
0.0006011 0.00196544 0
-3.31432e-14 0.00195838 0
-8.30559e-14 0.0015584 0
0.0006011 0.00196544 0
0.000558692 0.00156723 0
-8.30559e-14 0.0015584 0
2.05665e-14 0.00118983 0
0.000558692 0.00156723 0
0.000506859 0.00120043 0
2.05665e-14 0.00118983 0
6.83752e-14 0.000858958 0
0.000506859 0.00120043 0
0.000445603 0.000871327 0
6.83752e-14 0.000858958 0
2.20089e-14 0.000572067 0
0.000445603 0.000871327 0
0.000374922 0.0005862 0
2.20089e-14 0.000572067 0
3.16726e-14 0.000335423 0
0.000374922 0.0005862 0
0.000294815 0.000351354 0
3.16726e-14 0.000335423 0
-1.21629e-14 0.000155471 0
0.000294815 0.000351354 0
0.000205313 0.000172886 0
-1.21629e-14 0.000155471 0
-5.37951e-14 3.69884e-05 0
0.000205313 0.000172886 0
0.000106112 5.87527e-05 0
-5.37951e-14 3.69884e-05 0
0 0 0
0.000106112 5.87527e-05 0
0 0 0
