# vtk DataFile Version 3.0
#This file was generated by the deal.II library on 2025/7/24 at 10:55:47
ASCII
DATASET UNSTRUCTURED_GRID

POINTS 80 double
0 0 0
1.2 0 0
0 1.5 0
1.2 1.5 0
1.2 0 0
2.4 0 0
1.2 1.5 0
2.4 1.5 0
2.4 0 0
3.6 0 0
2.4 1.5 0
3.6 1.5 0
3.6 0 0
4.8 0 0
3.6 1.5 0
4.8 1.5 0
4.8 0 0
6 0 0
4.8 1.5 0
6 1.5 0
6 0 0
7.2 0 0
6 1.5 0
7.2 1.5 0
7.2 0 0
8.4 0 0
7.2 1.5 0
8.4 1.5 0
8.4 0 0
9.6 0 0
8.4 1.5 0
9.6 1.5 0
9.6 0 0
10.8 0 0
9.6 1.5 0
10.8 1.5 0
10.8 0 0
12 0 0
10.8 1.5 0
12 1.5 0
0 1.5 0
1.2 1.5 0
0 3 0
1.2 3 0
1.2 1.5 0
2.4 1.5 0
1.2 3 0
2.4 3 0
2.4 1.5 0
3.6 1.5 0
2.4 3 0
3.6 3 0
3.6 1.5 0
4.8 1.5 0
3.6 3 0
4.8 3 0
4.8 1.5 0
6 1.5 0
4.8 3 0
6 3 0
6 1.5 0
7.2 1.5 0
6 3 0
7.2 3 0
7.2 1.5 0
8.4 1.5 0
7.2 3 0
8.4 3 0
8.4 1.5 0
9.6 1.5 0
8.4 3 0
9.6 3 0
9.6 1.5 0
10.8 1.5 0
9.6 3 0
10.8 3 0
10.8 1.5 0
12 1.5 0
10.8 3 0
12 3 0

CELLS 20 100
4	0	1	3	2
4	4	5	7	6
4	8	9	11	10
4	12	13	15	14
4	16	17	19	18
4	20	21	23	22
4	24	25	27	26
4	28	29	31	30
4	32	33	35	34
4	36	37	39	38
4	40	41	43	42
4	44	45	47	46
4	48	49	51	50
4	52	53	55	54
4	56	57	59	58
4	60	61	63	62
4	64	65	67	66
4	68	69	71	70
4	72	73	75	74
4	76	77	79	78

CELL_TYPES 20
 9 9 9 9 9 9 9 9 9 9 9 9 9 9 9 9 9 9 9 9
POINT_DATA 80
VECTORS disp_0__disp_1 double
-0.000664146 0.00367801 0
-0.00065739 0.003135 0
1.07542e-14 0.00367724 0
-1.41213e-15 0.00313303 0
-0.00065739 0.003135 0
-0.000637416 0.00260318 0
-1.41213e-15 0.00313303 0
5.19708e-15 0.002599 0
-0.000637416 0.00260318 0
-0.000604101 0.0020926 0
5.19708e-15 0.002599 0
7.11916e-15 0.00208636 0
-0.000604101 0.0020926 0
-0.000557463 0.00161402 0
7.11916e-15 0.00208636 0
6.06196e-15 0.00160569 0
-0.000557463 0.00161402 0
-0.0004975 0.00117808 0
6.06196e-15 0.00160569 0
-2.57076e-15 0.00116767 0
-0.0004975 0.00117808 0
-0.000424213 0.000795427 0
-2.57076e-15 0.00116767 0
-1.21617e-14 0.000782944 0
-0.000424213 0.000795427 0
-0.000337592 0.000476784 0
-1.21617e-14 0.000782944 0
2.11782e-15 0.000462143 0
-0.000337592 0.000476784 0
-0.000237708 0.000232447 0
2.11782e-15 0.000462143 0
1.12325e-14 0.00021624 0
-0.000237708 0.000232447 0
-0.000124075 7.55294e-05 0
1.12325e-14 0.00021624 0
-1.70752e-15 5.37308e-05 0
-0.000124075 7.55294e-05 0
0 0 0
-1.70752e-15 5.37308e-05 0
0 0 0
1.07542e-14 0.00367724 0
-1.41213e-15 0.00313303 0
0.000664146 0.00367801 0
0.00065739 0.003135 0
-1.41213e-15 0.00313303 0
5.19708e-15 0.002599 0
0.00065739 0.003135 0
0.000637416 0.00260318 0
5.19708e-15 0.002599 0
7.11916e-15 0.00208636 0
0.000637416 0.00260318 0
0.000604101 0.0020926 0
7.11916e-15 0.00208636 0
6.06196e-15 0.00160569 0
0.000604101 0.0020926 0
0.000557463 0.00161402 0
6.06196e-15 0.00160569 0
-2.57076e-15 0.00116767 0
0.000557463 0.00161402 0
0.0004975 0.00117808 0
-2.57076e-15 0.00116767 0
-1.21617e-14 0.000782944 0
0.0004975 0.00117808 0
0.000424213 0.000795427 0
-1.21617e-14 0.000782944 0
2.11782e-15 0.000462143 0
0.000424213 0.000795427 0
0.000337592 0.000476784 0
2.11782e-15 0.000462143 0
1.12325e-14 0.00021624 0
0.000337592 0.000476784 0
0.000237708 0.000232447 0
1.12325e-14 0.00021624 0
-1.70752e-15 5.37308e-05 0
0.000237708 0.000232447 0
0.000124075 7.55294e-05 0
-1.70752e-15 5.37308e-05 0
0 0 0
0.000124075 7.55294e-05 0
0 0 0
SCALARS sigma_xx double 1
LOOKUP_TABLE default
176.031 169.663 -4.12917 -10.4974 522.141 510.34 -10.4974 -22.2977 866.097 855.095 -22.2977 -33.2998 1210.37 1199.25 -33.2998 -44.4178 1554.6 1543.49 -44.4178 -55.5286 1898.79 1887.74 -55.5286 -66.5738 2243.32 2231.82 -66.5738 -78.0824 2585.49 2577.14 -78.0824 -86.4352 2943.77 2913.95 -86.4352 -116.259 3192.41 3308.67 -116.259 4.55338e-08 4.12917 10.4974 -176.031 -169.663 10.4974 22.2977 -522.141 -510.34 22.2977 33.2998 -866.097 -855.095 33.2998 44.4178 -1210.37 -1199.25 44.4178 55.5286 -1554.6 -1543.49 55.5286 66.5738 -1898.79 -1887.74 66.5738 78.0824 -2243.32 -2231.82 78.0824 86.4352 -2585.49 -2577.14 86.4352 116.259 -2943.77 -2913.95 116.259 4.55338e-08 -3192.41 -3308.67 
SCALARS sigma_yy double 1
LOOKUP_TABLE default
28.5234 3.05065 -16.5167 -41.9894 91.1701 43.9687 -41.9894 -89.1908 132.908 88.8993 -89.1908 -133.199 177.718 133.246 -133.199 -177.671 222.083 177.64 -177.671 -222.114 266.465 222.284 -222.114 -266.295 311.18 265.145 -266.295 -312.329 353.564 320.153 -312.329 -345.741 411.811 292.515 -345.741 -465.037 362.131 827.169 -465.037 1.13835e-08 16.5167 41.9894 -28.5234 -3.05065 41.9894 89.1908 -91.1701 -43.9687 89.1908 133.199 -132.908 -88.8993 133.199 177.671 -177.718 -133.246 177.671 222.114 -222.083 -177.64 222.114 266.295 -266.465 -222.284 266.295 312.329 -311.18 -265.145 312.329 345.741 -353.564 -320.153 345.741 465.037 -411.811 -292.515 465.037 1.13835e-08 -362.131 -827.169 
SCALARS sigma_xy double 1
LOOKUP_TABLE default
-117.006 -171.054 -128.946 -182.994 -59.0415 -218.833 -81.1671 -240.959 -6.42633 -272.945 -27.0553 -293.574 46.9734 -326.127 26.1271 -346.973 100.269 -379.436 79.4364 -400.269 153.502 -432.793 132.793 -453.502 207.274 -485.695 185.695 -507.274 257.367 -541.705 241.705 -557.367 332.491 -576.571 276.571 -632.491 237.308 -755.294 455.294 -537.308 -128.946 -182.994 -117.006 -171.054 -81.1671 -240.959 -59.0415 -218.833 -27.0553 -293.574 -6.42633 -272.945 26.1271 -346.973 46.9734 -326.127 79.4364 -400.269 100.269 -379.436 132.793 -453.502 153.502 -432.793 185.695 -507.274 207.274 -485.695 241.705 -557.367 257.367 -541.705 276.571 -632.491 332.491 -576.571 455.294 -537.308 237.308 -755.294 
SCALARS strain_energy_density double 1
LOOKUP_TABLE default
0.0010586 0.00169474 0.000697059 0.00142284 0.00443093 0.00618134 0.000302053 0.00254351 0.0118389 0.0147888 0.000154796 0.00386828 0.0232423 0.0273659 0.000305662 0.00550951 0.0386436 0.0439459 0.000756159 0.0074465 0.0580388 0.0645242 0.0015056 0.00967737 0.0814618 0.0890863 0.0025448 0.0122462 0.108638 0.117754 0.00395844 0.0148118 0.14176 0.149693 0.00505491 0.0200476 0.164757 0.194821 0.0120163 0.0120292 0.000697059 0.00142284 0.0010586 0.00169474 0.000302053 0.00254351 0.00443093 0.00618134 0.000154796 0.00386828 0.0118389 0.0147888 0.000305662 0.00550951 0.0232423 0.0273659 0.000756159 0.0074465 0.0386436 0.0439459 0.0015056 0.00967737 0.0580388 0.0645242 0.0025448 0.0122462 0.0814618 0.0890863 0.00395844 0.0148118 0.108638 0.117754 0.00505491 0.0200476 0.14176 0.149693 0.0120163 0.0120292 0.164757 0.194821 
